/*--------------------------------*- C++ -*----------------------------------*\
| =========                 |                                                 |
| \\      /  F ield         | OpenFOAM: The Open Source CFD Toolbox           |
|  \\    /   O peration     | Version:  Generated with helper tools           |
|   \\  /    A nd           | Web:      www.OpenFOAM.com                      |
|    \\/     M anipulation  |                                                 |
\*---------------------------------------------------------------------------*/

FoamFile
{
    version     2.0;
    format      ascii;
    class       volScalarField;
    location    "0";
    object      epsilon; // rate of turbulent kinetic energy (for k-ε models)
}

/* How to estimate epsilon (ε)
recalculate for each new case using:  e = Cu * ((k^(3/2)) / l)
Cu = Turbulent Constant = 0.09
k = Turbulent Kinetic Energy
l = Turbulent Length Scale and can be estimated using:  l = 0.038 * dh
dh = hydraulic pipe diameter
*/

// * * * * * * * * * * * * * * * * * * * * * * * * * * * * * * * * * * * * * //

dimensions      [0 2 -3 0 0 0 0];

internalField   uniform 2.67;

boundaryField
{
