/*--------------------------------*- C++ -*----------------------------------*\
| =========                 |                                                 |
| \\      /  F ield         | OpenFOAM: The Open Source CFD Toolbox           |
|  \\    /   O peration     | Version:  Generated with helper tools           |
|   \\  /    A nd           | Web:      www.OpenFOAM.com                      |
|    \\/     M anipulation  |                                                 |
\*---------------------------------------------------------------------------*/

FoamFile
{
    version     2.0;
    format      ascii;
    class       volScalarField;
    location    "0";
    object      k; // Turbulent kinetic energy (for k-ε, k-ω, and LES models)
}

/* How to estimate turbulent kinetic energy (k)
recalculate for each new case using k = (3 / 2) * ((U / I)^2)
U = Freestream fluid velocity
I = Turbulence Intensity and can be estimated using: I = 0.16 * Re
Re = Reynolds number based on pipe diameter
*/

// * * * * * * * * * * * * * * * * * * * * * * * * * * * * * * * * * * * * * //

dimensions      [0 2 -2 0 0 0 0];

internalField   uniform 0.05;

boundaryField
{
