/*--------------------------------*- C++ -*----------------------------------*\
| =========                 |                                                 |
| \\      /  F ield         | OpenFOAM: The Open Source CFD Toolbox           |
|  \\    /   O peration     | Version:  User generated                        |
|   \\  /    A nd           | Web:      www.OpenFOAM.org                      |
|    \\/     M anipulation  |                                                 |
\*---------------------------------------------------------------------------*/

FoamFile
{
    format      binary;  // Options: binary (less space), ascii (human-readable)
    class       volScalarField;
    location    "0";
    object      alpha.water;
}

// Vomuletric fraction of water
// Models: Multi-phase flow

// * * * * * * * * * * * * * * * * * * * * * * * * * * * * * * * * * * * * * //

dimensions      [0 0 0 0 0 0 0];

internalField   uniform 0;

boundaryField
{
    // Insert the required $BOUNDARY_FIELDS$ 
    "(minX|maxX|minY|maxY|minZ|maxZ)"
    {
        type            zeroGradient;
    }
}
