/*--------------------------------*- C++ -*----------------------------------*\
  =========                 |
  \\      /  F ield         | OpenFOAM: The Open Source CFD Toolbox
   \\    /   O peration     | Website:  www.openfoam.org
    \\  /    A nd           | Version:  User generated
     \\/     M anipulation  |
\*---------------------------------------------------------------------------*/

FoamFile
{
    format      binary;  // Options: binary (less space), ascii (human-readable)
    class       volScalarField;
    location    "0";
    object      kl;
}

// Turbulent Kinetic Energy per Unit Mass
// Models: low-Re-number, LES hybrid models

// * * * * * * * * * * * * * * * * * * * * * * * * * * * * * * * * * * * * * //

dimensions      [0 2 -2 0 0 0 0];

internalField   uniform 0;

boundaryField
{
    // Insert the required $BOUNDARY_FIELDS$
    "(minX|maxX|minY|maxY|minZ|maxZ)"
    {
        type            slip;
    }

    // CAUTION: Including base types can break cyclic behaviour
    //#includeEtc "caseDicts/setConstraintTypes"  // base types from OF directory
}

// ************************************************************************* //