/*--------------------------------*- C++ -*----------------------------------*\
| =========                 |                                                 |
| \\      /  F ield         | OpenFOAM: The Open Source CFD Toolbox           |
|  \\    /   O peration     | Version:  User generated                        |
|   \\  /    A nd           | Web:      www.OpenFOAM.org                      |
|    \\/     M anipulation  |                                                 |
\*---------------------------------------------------------------------------*/

FoamFile
{
    format      binary;  // Options: binary (less space), ascii (human-readable)
    class       volScalarField;
    location    "0";
    object      nuTilda;
}

// Molecularly adjusted turbulent kinematic viscosity
// Models: Spalart-Allmaras

// * * * * * * * * * * * * * * * * * * * * * * * * * * * * * * * * * * * * * //

dimensions      [0 2 -1 0 0 0 0];

internalField   uniform 0;

boundaryField
{
    // Insert the required $BOUNDARY_FIELDS$
    "(minX|maxX|minY|maxY|minZ|maxZ)"
    {
        type    slip;
    }
}

// ************************************************************************* //