/*--------------------------------*- C++ -*----------------------------------*\
| =========                 |                                                 |
| \\      /  F ield         | OpenFOAM: The Open Source CFD Toolbox           |
|  \\    /   O peration     | Version:  User generated                        |
|   \\  /    A nd           | Web:      www.OpenFOAM.org                      |
|    \\/     M anipulation  |                                                 |
\*---------------------------------------------------------------------------*/

FoamFile
{
    format      binary;  // Options: binary (less space), ascii (human-readable)
    class       volVectorField;
    location    "0";
    object      U;
}

// Flow Velocity (m/s)
// Models: All

// * * * * * * * * * * * * * * * * * * * * * * * * * * * * * * * * * * * * * //

dimensions      [0 1 -1 0 0 0 0];

internalField   uniform (0 0 0);

boundaryField
{
    // Insert the required $BOUNDARY_FIELDS$ 
    "(minX|maxX|minY|maxY|minZ|maxZ)"
    {
        type            zeroGradient;
    }
}

