/*--------------------------------*- C++ -*----------------------------------*\
  =========                 |
  \\      /  F ield         | OpenFOAM: The Open Source CFD Toolbox
   \\    /   O peration     | Website:  www.openfoam.org
    \\  /    A nd           | Version:  User generated
     \\/     M anipulation  |
\*---------------------------------------------------------------------------*/

FoamFile
{
    format      binary;  // Options: binary (less space), ascii (human-readable)
    class       pointVectorField;
    location    "0";
    object      pointDisplacement;
}

// Point displacement
// Models: Models using flow induced roation

// * * * * * * * * * * * * * * * * * * * * * * * * * * * * * * * * * * * * * //

dimensions      [0 1 0 0 0 0 0];

internalField   uniform (0 0 0);

boundaryField
{
    // Insert the required $BOUNDARY_FIELDS$
    "(minX|maxX|minY|maxY|minZ|maxZ)"
    {
        type            slip;
    }

    // CAUTION: Including base types can break cyclic behaviour
    //#includeEtc "caseDicts/setConstraintTypes"  // base types from OF directory
}

// ************************************************************************* //
